<?xml version="1.0"?>
<VTKFile type="PolyData" version="0.1" byte_order="LittleEndian">
  <PolyData>
    <Piece NumberOfPoints="1200" NumberOfPolys="2304">
      <PointData Scalars="Height">
        <DataArray type="Float32" Name="Height" format="ascii">
          1.000000 1.000000 1.000000 1.000000 1.000000 1.000000 1.000000 1.000000 1.000000 1.000000 1.000000 1.000000 1.000000 1.000000 1.000000 1.000000 1.000000 1.000000 1.000000 1.000000 1.000000 1.000000 1.000000 1.000000 1.000000 1.000000 1.000000 1.000000 1.000000 1.000000 1.000000 1.000000 1.000000 1.000000 1.000000 1.000000 1.000000 1.000000 1.000000 1.000000 1.000000 1.000000 1.000000 1.000000 1.000000 1.000000 1.000000 1.000000 0.991445 0.991445 0.991445 0.991445 0.991445 0.991445 0.991445 0.991445 0.991445 0.991445 0.991445 0.991445 0.991445 0.991445 0.991445 0.991445 0.991445 0.991445 0.991445 0.991445 0.991445 0.991445 0.991445 0.991445 0.991445 0.991445 0.991445 0.991445 0.991445 0.991445 0.991445 0.991445 0.991445 0.991445 0.991445 0.991445 0.991445 0.991445 0.991445 0.991445 0.991445 0.991445 0.991445 0.991445 0.991445 0.991445 0.991445 0.991445 0.965926 0.965926 0.965926 0.965926 0.965926 0.965926 0.965926 0.965926 0.965926 0.965926 0.965926 0.965926 0.965926 0.965926 0.965926 0.965926 0.965926 0.965926 0.965926 0.965926 0.965926 0.965926 0.965926 0.965926 0.965926 0.965926 0.965926 0.965926 0.965926 0.965926 0.965926 0.965926 0.965926 0.965926 0.965926 0.965926 0.965926 0.965926 0.965926 0.965926 0.965926 0.965926 0.965926 0.965926 0.965926 0.965926 0.965926 0.965926 0.923880 0.923880 0.923880 0.923880 0.923880 0.923880 0.923880 0.923880 0.923880 0.923880 0.923880 0.923880 0.923880 0.923880 0.923880 0.923880 0.923880 0.923880 0.923880 0.923880 0.923880 0.923880 0.923880 0.923880 0.923880 0.923880 0.923880 0.923880 0.923880 0.923880 0.923880 0.923880 0.923880 0.923880 0.923880 0.923880 0.923880 0.923880 0.923880 0.923880 0.923880 0.923880 0.923880 0.923880 0.923880 0.923880 0.923880 0.923880 0.866025 0.866025 0.866025 0.866025 0.866025 0.866025 0.866025 0.866025 0.866025 0.866025 0.866025 0.866025 0.866025 0.866025 0.866025 0.866025 0.866025 0.866025 0.866025 0.866025 0.866025 0.866025 0.866025 0.866025 0.866025 0.866025 0.866025 0.866025 0.866025 0.866025 0.866025 0.866025 0.866025 0.866025 0.866025 0.866025 0.866025 0.866025 0.866025 0.866025 0.866025 0.866025 0.866025 0.866025 0.866025 0.866025 0.866025 0.866025 0.793353 0.793353 0.793353 0.793353 0.793353 0.793353 0.793353 0.793353 0.793353 0.793353 0.793353 0.793353 0.793353 0.793353 0.793353 0.793353 0.793353 0.793353 0.793353 0.793353 0.793353 0.793353 0.793353 0.793353 0.793353 0.793353 0.793353 0.793353 0.793353 0.793353 0.793353 0.793353 0.793353 0.793353 0.793353 0.793353 0.793353 0.793353 0.793353 0.793353 0.793353 0.793353 0.793353 0.793353 0.793353 0.793353 0.793353 0.793353 0.707107 0.707107 0.707107 0.707107 0.707107 0.707107 0.707107 0.707107 0.707107 0.707107 0.707107 0.707107 0.707107 0.707107 0.707107 0.707107 0.707107 0.707107 0.707107 0.707107 0.707107 0.707107 0.707107 0.707107 0.707107 0.707107 0.707107 0.707107 0.707107 0.707107 0.707107 0.707107 0.707107 0.707107 0.707107 0.707107 0.707107 0.707107 0.707107 0.707107 0.707107 0.707107 0.707107 0.707107 0.707107 0.707107 0.707107 0.707107 0.608761 0.608761 0.608761 0.608761 0.608761 0.608761 0.608761 0.608761 0.608761 0.608761 0.608761 0.608761 0.608761 0.608761 0.608761 0.608761 0.608761 0.608761 0.608761 0.608761 0.608761 0.608761 0.608761 0.608761 0.608761 0.608761 0.608761 0.608761 0.608761 0.608761 0.608761 0.608761 0.608761 0.608761 0.608761 0.608761 0.608761 0.608761 0.608761 0.608761 0.608761 0.608761 0.608761 0.608761 0.608761 0.608761 0.608761 0.608761 0.500000 0.500000 0.500000 0.500000 0.500000 0.500000 0.500000 0.500000 0.500000 0.500000 0.500000 0.500000 0.500000 0.500000 0.500000 0.500000 0.500000 0.500000 0.500000 0.500000 0.500000 0.500000 0.500000 0.500000 0.500000 0.500000 0.500000 0.500000 0.500000 0.500000 0.500000 0.500000 0.500000 0.500000 0.500000 0.500000 0.500000 0.500000 0.500000 0.500000 0.500000 0.500000 0.500000 0.500000 0.500000 0.500000 0.500000 0.500000 0.382683 0.382683 0.382683 0.382683 0.382683 0.382683 0.382683 0.382683 0.382683 0.382683 0.382683 0.382683 0.382683 0.382683 0.382683 0.382683 0.382683 0.382683 0.382683 0.382683 0.382683 0.382683 0.382683 0.382683 0.382683 0.382683 0.382683 0.382683 0.382683 0.382683 0.382683 0.382683 0.382683 0.382683 0.382683 0.382683 0.382683 0.382683 0.382683 0.382683 0.382683 0.382683 0.382683 0.382683 0.382683 0.382683 0.382683 0.382683 0.258819 0.258819 0.258819 0.258819 0.258819 0.258819 0.258819 0.258819 0.258819 0.258819 0.258819 0.258819 0.258819 0.258819 0.258819 0.258819 0.258819 0.258819 0.258819 0.258819 0.258819 0.258819 0.258819 0.258819 0.258819 0.258819 0.258819 0.258819 0.258819 0.258819 0.258819 0.258819 0.258819 0.258819 0.258819 0.258819 0.258819 0.258819 0.258819 0.258819 0.258819 0.258819 0.258819 0.258819 0.258819 0.258819 0.258819 0.258819 0.130526 0.130526 0.130526 0.130526 0.130526 0.130526 0.130526 0.130526 0.130526 0.130526 0.130526 0.130526 0.130526 0.130526 0.130526 0.130526 0.130526 0.130526 0.130526 0.130526 0.130526 0.130526 0.130526 0.130526 0.130526 0.130526 0.130526 0.130526 0.130526 0.130526 0.130526 0.130526 0.130526 0.130526 0.130526 0.130526 0.130526 0.130526 0.130526 0.130526 0.130526 0.130526 0.130526 0.130526 0.130526 0.130526 0.130526 0.130526 0.000000 0.000000 0.000000 0.000000 0.000000 0.000000 0.000000 0.000000 0.000000 0.000000 0.000000 0.000000 0.000000 0.000000 0.000000 0.000000 0.000000 0.000000 0.000000 0.000000 0.000000 0.000000 0.000000 0.000000 0.000000 0.000000 0.000000 0.000000 0.000000 0.000000 0.000000 0.000000 0.000000 0.000000 0.000000 0.000000 0.000000 0.000000 0.000000 0.000000 0.000000 0.000000 0.000000 0.000000 0.000000 0.000000 0.000000 0.000000 -0.130526 -0.130526 -0.130526 -0.130526 -0.130526 -0.130526 -0.130526 -0.130526 -0.130526 -0.130526 -0.130526 -0.130526 -0.130526 -0.130526 -0.130526 -0.130526 -0.130526 -0.130526 -0.130526 -0.130526 -0.130526 -0.130526 -0.130526 -0.130526 -0.130526 -0.130526 -0.130526 -0.130526 -0.130526 -0.130526 -0.130526 -0.130526 -0.130526 -0.130526 -0.130526 -0.130526 -0.130526 -0.130526 -0.130526 -0.130526 -0.130526 -0.130526 -0.130526 -0.130526 -0.130526 -0.130526 -0.130526 -0.130526 -0.258819 -0.258819 -0.258819 -0.258819 -0.258819 -0.258819 -0.258819 -0.258819 -0.258819 -0.258819 -0.258819 -0.258819 -0.258819 -0.258819 -0.258819 -0.258819 -0.258819 -0.258819 -0.258819 -0.258819 -0.258819 -0.258819 -0.258819 -0.258819 -0.258819 -0.258819 -0.258819 -0.258819 -0.258819 -0.258819 -0.258819 -0.258819 -0.258819 -0.258819 -0.258819 -0.258819 -0.258819 -0.258819 -0.258819 -0.258819 -0.258819 -0.258819 -0.258819 -0.258819 -0.258819 -0.258819 -0.258819 -0.258819 -0.382683 -0.382683 -0.382683 -0.382683 -0.382683 -0.382683 -0.382683 -0.382683 -0.382683 -0.382683 -0.382683 -0.382683 -0.382683 -0.382683 -0.382683 -0.382683 -0.382683 -0.382683 -0.382683 -0.382683 -0.382683 -0.382683 -0.382683 -0.382683 -0.382683 -0.382683 -0.382683 -0.382683 -0.382683 -0.382683 -0.382683 -0.382683 -0.382683 -0.382683 -0.382683 -0.382683 -0.382683 -0.382683 -0.382683 -0.382683 -0.382683 -0.382683 -0.382683 -0.382683 -0.382683 -0.382683 -0.382683 -0.382683 -0.500000 -0.500000 -0.500000 -0.500000 -0.500000 -0.500000 -0.500000 -0.500000 -0.500000 -0.500000 -0.500000 -0.500000 -0.500000 -0.500000 -0.500000 -0.500000 -0.500000 -0.500000 -0.500000 -0.500000 -0.500000 -0.500000 -0.500000 -0.500000 -0.500000 -0.500000 -0.500000 -0.500000 -0.500000 -0.500000 -0.500000 -0.500000 -0.500000 -0.500000 -0.500000 -0.500000 -0.500000 -0.500000 -0.500000 -0.500000 -0.500000 -0.500000 -0.500000 -0.500000 -0.500000 -0.500000 -0.500000 -0.500000 -0.608761 -0.608761 -0.608761 -0.608761 -0.608761 -0.608761 -0.608761 -0.608761 -0.608761 -0.608761 -0.608761 -0.608761 -0.608761 -0.608761 -0.608761 -0.608761 -0.608761 -0.608761 -0.608761 -0.608761 -0.608761 -0.608761 -0.608761 -0.608761 -0.608761 -0.608761 -0.608761 -0.608761 -0.608761 -0.608761 -0.608761 -0.608761 -0.608761 -0.608761 -0.608761 -0.608761 -0.608761 -0.608761 -0.608761 -0.608761 -0.608761 -0.608761 -0.608761 -0.608761 -0.608761 -0.608761 -0.608761 -0.608761 -0.707107 -0.707107 -0.707107 -0.707107 -0.707107 -0.707107 -0.707107 -0.707107 -0.707107 -0.707107 -0.707107 -0.707107 -0.707107 -0.707107 -0.707107 -0.707107 -0.707107 -0.707107 -0.707107 -0.707107 -0.707107 -0.707107 -0.707107 -0.707107 -0.707107 -0.707107 -0.707107 -0.707107 -0.707107 -0.707107 -0.707107 -0.707107 -0.707107 -0.707107 -0.707107 -0.707107 -0.707107 -0.707107 -0.707107 -0.707107 -0.707107 -0.707107 -0.707107 -0.707107 -0.707107 -0.707107 -0.707107 -0.707107 -0.793353 -0.793353 -0.793353 -0.793353 -0.793353 -0.793353 -0.793353 -0.793353 -0.793353 -0.793353 -0.793353 -0.793353 -0.793353 -0.793353 -0.793353 -0.793353 -0.793353 -0.793353 -0.793353 -0.793353 -0.793353 -0.793353 -0.793353 -0.793353 -0.793353 -0.793353 -0.793353 -0.793353 -0.793353 -0.793353 -0.793353 -0.793353 -0.793353 -0.793353 -0.793353 -0.793353 -0.793353 -0.793353 -0.793353 -0.793353 -0.793353 -0.793353 -0.793353 -0.793353 -0.793353 -0.793353 -0.793353 -0.793353 -0.866025 -0.866025 -0.866025 -0.866025 -0.866025 -0.866025 -0.866025 -0.866025 -0.866025 -0.866025 -0.866025 -0.866025 -0.866025 -0.866025 -0.866025 -0.866025 -0.866025 -0.866025 -0.866025 -0.866025 -0.866025 -0.866025 -0.866025 -0.866025 -0.866025 -0.866025 -0.866025 -0.866025 -0.866025 -0.866025 -0.866025 -0.866025 -0.866025 -0.866025 -0.866025 -0.866025 -0.866025 -0.866025 -0.866025 -0.866025 -0.866025 -0.866025 -0.866025 -0.866025 -0.866025 -0.866025 -0.866025 -0.866025 -0.923880 -0.923880 -0.923880 -0.923880 -0.923880 -0.923880 -0.923880 -0.923880 -0.923880 -0.923880 -0.923880 -0.923880 -0.923880 -0.923880 -0.923880 -0.923880 -0.923880 -0.923880 -0.923880 -0.923880 -0.923880 -0.923880 -0.923880 -0.923880 -0.923880 -0.923880 -0.923880 -0.923880 -0.923880 -0.923880 -0.923880 -0.923880 -0.923880 -0.923880 -0.923880 -0.923880 -0.923880 -0.923880 -0.923880 -0.923880 -0.923880 -0.923880 -0.923880 -0.923880 -0.923880 -0.923880 -0.923880 -0.923880 -0.965926 -0.965926 -0.965926 -0.965926 -0.965926 -0.965926 -0.965926 -0.965926 -0.965926 -0.965926 -0.965926 -0.965926 -0.965926 -0.965926 -0.965926 -0.965926 -0.965926 -0.965926 -0.965926 -0.965926 -0.965926 -0.965926 -0.965926 -0.965926 -0.965926 -0.965926 -0.965926 -0.965926 -0.965926 -0.965926 -0.965926 -0.965926 -0.965926 -0.965926 -0.965926 -0.965926 -0.965926 -0.965926 -0.965926 -0.965926 -0.965926 -0.965926 -0.965926 -0.965926 -0.965926 -0.965926 -0.965926 -0.965926 -0.991445 -0.991445 -0.991445 -0.991445 -0.991445 -0.991445 -0.991445 -0.991445 -0.991445 -0.991445 -0.991445 -0.991445 -0.991445 -0.991445 -0.991445 -0.991445 -0.991445 -0.991445 -0.991445 -0.991445 -0.991445 -0.991445 -0.991445 -0.991445 -0.991445 -0.991445 -0.991445 -0.991445 -0.991445 -0.991445 -0.991445 -0.991445 -0.991445 -0.991445 -0.991445 -0.991445 -0.991445 -0.991445 -0.991445 -0.991445 -0.991445 -0.991445 -0.991445 -0.991445 -0.991445 -0.991445 -0.991445 -0.991445 -1.000000 -1.000000 -1.000000 -1.000000 -1.000000 -1.000000 -1.000000 -1.000000 -1.000000 -1.000000 -1.000000 -1.000000 -1.000000 -1.000000 -1.000000 -1.000000 -1.000000 -1.000000 -1.000000 -1.000000 -1.000000 -1.000000 -1.000000 -1.000000 -1.000000 -1.000000 -1.000000 -1.000000 -1.000000 -1.000000 -1.000000 -1.000000 -1.000000 -1.000000 -1.000000 -1.000000 -1.000000 -1.000000 -1.000000 -1.000000 -1.000000 -1.000000 -1.000000 -1.000000 -1.000000 -1.000000 -1.000000 -1.000000
        </DataArray>
        <DataArray type="Float32" Name="RadialDist" format="ascii">
          0.000000 0.000000 0.000000 0.000000 0.000000 0.000000 0.000000 0.000000 0.000000 0.000000 0.000000 0.000000 0.000000 0.000000 0.000000 0.000000 0.000000 0.000000 0.000000 0.000000 0.000000 0.000000 0.000000 0.000000 0.000000 0.000000 0.000000 0.000000 0.000000 0.000000 0.000000 0.000000 0.000000 0.000000 0.000000 0.000000 0.000000 0.000000 0.000000 0.000000 0.000000 0.000000 0.000000 0.000000 0.000000 0.000000 0.000000 0.000000 0.130526 0.130526 0.130526 0.130526 0.130526 0.130526 0.130526 0.130526 0.130526 0.130526 0.130526 0.130526 0.130526 0.130526 0.130526 0.130526 0.130526 0.130526 0.130526 0.130526 0.130526 0.130526 0.130526 0.130526 0.130526 0.130526 0.130526 0.130526 0.130526 0.130526 0.130526 0.130526 0.130526 0.130526 0.130526 0.130526 0.130526 0.130526 0.130526 0.130526 0.130526 0.130526 0.130526 0.130526 0.130526 0.130526 0.130526 0.130526 0.258819 0.258819 0.258819 0.258819 0.258819 0.258819 0.258819 0.258819 0.258819 0.258819 0.258819 0.258819 0.258819 0.258819 0.258819 0.258819 0.258819 0.258819 0.258819 0.258819 0.258819 0.258819 0.258819 0.258819 0.258819 0.258819 0.258819 0.258819 0.258819 0.258819 0.258819 0.258819 0.258819 0.258819 0.258819 0.258819 0.258819 0.258819 0.258819 0.258819 0.258819 0.258819 0.258819 0.258819 0.258819 0.258819 0.258819 0.258819 0.382683 0.382683 0.382683 0.382683 0.382683 0.382683 0.382683 0.382683 0.382683 0.382683 0.382683 0.382683 0.382683 0.382683 0.382683 0.382683 0.382683 0.382683 0.382683 0.382683 0.382683 0.382683 0.382683 0.382683 0.382683 0.382683 0.382683 0.382683 0.382683 0.382683 0.382683 0.382683 0.382683 0.382683 0.382683 0.382683 0.382683 0.382683 0.382683 0.382683 0.382683 0.382683 0.382683 0.382683 0.382683 0.382683 0.382683 0.382683 0.500000 0.500000 0.500000 0.500000 0.500000 0.500000 0.500000 0.500000 0.500000 0.500000 0.500000 0.500000 0.500000 0.500000 0.500000 0.500000 0.500000 0.500000 0.500000 0.500000 0.500000 0.500000 0.500000 0.500000 0.500000 0.500000 0.500000 0.500000 0.500000 0.500000 0.500000 0.500000 0.500000 0.500000 0.500000 0.500000 0.500000 0.500000 0.500000 0.500000 0.500000 0.500000 0.500000 0.500000 0.500000 0.500000 0.500000 0.500000 0.608761 0.608761 0.608761 0.608761 0.608761 0.608761 0.608761 0.608761 0.608761 0.608761 0.608761 0.608761 0.608761 0.608761 0.608761 0.608761 0.608761 0.608761 0.608761 0.608761 0.608761 0.608761 0.608761 0.608761 0.608761 0.608761 0.608761 0.608761 0.608761 0.608761 0.608761 0.608761 0.608761 0.608761 0.608761 0.608761 0.608761 0.608761 0.608761 0.608761 0.608761 0.608761 0.608761 0.608761 0.608761 0.608761 0.608761 0.608761 0.707107 0.707107 0.707107 0.707107 0.707107 0.707107 0.707107 0.707107 0.707107 0.707107 0.707107 0.707107 0.707107 0.707107 0.707107 0.707107 0.707107 0.707107 0.707107 0.707107 0.707107 0.707107 0.707107 0.707107 0.707107 0.707107 0.707107 0.707107 0.707107 0.707107 0.707107 0.707107 0.707107 0.707107 0.707107 0.707107 0.707107 0.707107 0.707107 0.707107 0.707107 0.707107 0.707107 0.707107 0.707107 0.707107 0.707107 0.707107 0.793353 0.793353 0.793353 0.793353 0.793353 0.793353 0.793353 0.793353 0.793353 0.793353 0.793353 0.793353 0.793353 0.793353 0.793353 0.793353 0.793353 0.793353 0.793353 0.793353 0.793353 0.793353 0.793353 0.793353 0.793353 0.793353 0.793353 0.793353 0.793353 0.793353 0.793353 0.793353 0.793353 0.793353 0.793353 0.793353 0.793353 0.793353 0.793353 0.793353 0.793353 0.793353 0.793353 0.793353 0.793353 0.793353 0.793353 0.793353 0.866025 0.866025 0.866025 0.866025 0.866025 0.866025 0.866025 0.866025 0.866025 0.866025 0.866025 0.866025 0.866025 0.866025 0.866025 0.866025 0.866025 0.866025 0.866025 0.866025 0.866025 0.866025 0.866025 0.866025 0.866025 0.866025 0.866025 0.866025 0.866025 0.866025 0.866025 0.866025 0.866025 0.866025 0.866025 0.866025 0.866025 0.866025 0.866025 0.866025 0.866025 0.866025 0.866025 0.866025 0.866025 0.866025 0.866025 0.866025 0.923880 0.923880 0.923880 0.923880 0.923880 0.923880 0.923880 0.923880 0.923880 0.923880 0.923880 0.923880 0.923880 0.923880 0.923880 0.923880 0.923880 0.923880 0.923880 0.923880 0.923880 0.923880 0.923880 0.923880 0.923880 0.923880 0.923880 0.923880 0.923880 0.923880 0.923880 0.923880 0.923880 0.923880 0.923880 0.923880 0.923880 0.923880 0.923880 0.923880 0.923880 0.923880 0.923880 0.923880 0.923880 0.923880 0.923880 0.923880 0.965926 0.965926 0.965926 0.965926 0.965926 0.965926 0.965926 0.965926 0.965926 0.965926 0.965926 0.965926 0.965926 0.965926 0.965926 0.965926 0.965926 0.965926 0.965926 0.965926 0.965926 0.965926 0.965926 0.965926 0.965926 0.965926 0.965926 0.965926 0.965926 0.965926 0.965926 0.965926 0.965926 0.965926 0.965926 0.965926 0.965926 0.965926 0.965926 0.965926 0.965926 0.965926 0.965926 0.965926 0.965926 0.965926 0.965926 0.965926 0.991445 0.991445 0.991445 0.991445 0.991445 0.991445 0.991445 0.991445 0.991445 0.991445 0.991445 0.991445 0.991445 0.991445 0.991445 0.991445 0.991445 0.991445 0.991445 0.991445 0.991445 0.991445 0.991445 0.991445 0.991445 0.991445 0.991445 0.991445 0.991445 0.991445 0.991445 0.991445 0.991445 0.991445 0.991445 0.991445 0.991445 0.991445 0.991445 0.991445 0.991445 0.991445 0.991445 0.991445 0.991445 0.991445 0.991445 0.991445 1.000000 1.000000 1.000000 1.000000 1.000000 1.000000 1.000000 1.000000 1.000000 1.000000 1.000000 1.000000 1.000000 1.000000 1.000000 1.000000 1.000000 1.000000 1.000000 1.000000 1.000000 1.000000 1.000000 1.000000 1.000000 1.000000 1.000000 1.000000 1.000000 1.000000 1.000000 1.000000 1.000000 1.000000 1.000000 1.000000 1.000000 1.000000 1.000000 1.000000 1.000000 1.000000 1.000000 1.000000 1.000000 1.000000 1.000000 1.000000 0.991445 0.991445 0.991445 0.991445 0.991445 0.991445 0.991445 0.991445 0.991445 0.991445 0.991445 0.991445 0.991445 0.991445 0.991445 0.991445 0.991445 0.991445 0.991445 0.991445 0.991445 0.991445 0.991445 0.991445 0.991445 0.991445 0.991445 0.991445 0.991445 0.991445 0.991445 0.991445 0.991445 0.991445 0.991445 0.991445 0.991445 0.991445 0.991445 0.991445 0.991445 0.991445 0.991445 0.991445 0.991445 0.991445 0.991445 0.991445 0.965926 0.965926 0.965926 0.965926 0.965926 0.965926 0.965926 0.965926 0.965926 0.965926 0.965926 0.965926 0.965926 0.965926 0.965926 0.965926 0.965926 0.965926 0.965926 0.965926 0.965926 0.965926 0.965926 0.965926 0.965926 0.965926 0.965926 0.965926 0.965926 0.965926 0.965926 0.965926 0.965926 0.965926 0.965926 0.965926 0.965926 0.965926 0.965926 0.965926 0.965926 0.965926 0.965926 0.965926 0.965926 0.965926 0.965926 0.965926 0.923880 0.923880 0.923880 0.923880 0.923880 0.923880 0.923880 0.923880 0.923880 0.923880 0.923880 0.923880 0.923880 0.923880 0.923880 0.923880 0.923880 0.923880 0.923880 0.923880 0.923880 0.923880 0.923880 0.923880 0.923880 0.923880 0.923880 0.923880 0.923880 0.923880 0.923880 0.923880 0.923880 0.923880 0.923880 0.923880 0.923880 0.923880 0.923880 0.923880 0.923880 0.923880 0.923880 0.923880 0.923880 0.923880 0.923880 0.923880 0.866025 0.866025 0.866025 0.866025 0.866025 0.866025 0.866025 0.866025 0.866025 0.866025 0.866025 0.866025 0.866025 0.866025 0.866025 0.866025 0.866025 0.866025 0.866025 0.866025 0.866025 0.866025 0.866025 0.866025 0.866025 0.866025 0.866025 0.866025 0.866025 0.866025 0.866025 0.866025 0.866025 0.866025 0.866025 0.866025 0.866025 0.866025 0.866025 0.866025 0.866025 0.866025 0.866025 0.866025 0.866025 0.866025 0.866025 0.866025 0.793353 0.793353 0.793353 0.793353 0.793353 0.793353 0.793353 0.793353 0.793353 0.793353 0.793353 0.793353 0.793353 0.793353 0.793353 0.793353 0.793353 0.793353 0.793353 0.793353 0.793353 0.793353 0.793353 0.793353 0.793353 0.793353 0.793353 0.793353 0.793353 0.793353 0.793353 0.793353 0.793353 0.793353 0.793353 0.793353 0.793353 0.793353 0.793353 0.793353 0.793353 0.793353 0.793353 0.793353 0.793353 0.793353 0.793353 0.793353 0.707107 0.707107 0.707107 0.707107 0.707107 0.707107 0.707107 0.707107 0.707107 0.707107 0.707107 0.707107 0.707107 0.707107 0.707107 0.707107 0.707107 0.707107 0.707107 0.707107 0.707107 0.707107 0.707107 0.707107 0.707107 0.707107 0.707107 0.707107 0.707107 0.707107 0.707107 0.707107 0.707107 0.707107 0.707107 0.707107 0.707107 0.707107 0.707107 0.707107 0.707107 0.707107 0.707107 0.707107 0.707107 0.707107 0.707107 0.707107 0.608761 0.608761 0.608761 0.608761 0.608761 0.608761 0.608761 0.608761 0.608761 0.608761 0.608761 0.608761 0.608761 0.608761 0.608761 0.608761 0.608761 0.608761 0.608761 0.608761 0.608761 0.608761 0.608761 0.608761 0.608761 0.608761 0.608761 0.608761 0.608761 0.608761 0.608761 0.608761 0.608761 0.608761 0.608761 0.608761 0.608761 0.608761 0.608761 0.608761 0.608761 0.608761 0.608761 0.608761 0.608761 0.608761 0.608761 0.608761 0.500000 0.500000 0.500000 0.500000 0.500000 0.500000 0.500000 0.500000 0.500000 0.500000 0.500000 0.500000 0.500000 0.500000 0.500000 0.500000 0.500000 0.500000 0.500000 0.500000 0.500000 0.500000 0.500000 0.500000 0.500000 0.500000 0.500000 0.500000 0.500000 0.500000 0.500000 0.500000 0.500000 0.500000 0.500000 0.500000 0.500000 0.500000 0.500000 0.500000 0.500000 0.500000 0.500000 0.500000 0.500000 0.500000 0.500000 0.500000 0.382683 0.382683 0.382683 0.382683 0.382683 0.382683 0.382683 0.382683 0.382683 0.382683 0.382683 0.382683 0.382683 0.382683 0.382683 0.382683 0.382683 0.382683 0.382683 0.382683 0.382683 0.382683 0.382683 0.382683 0.382683 0.382683 0.382683 0.382683 0.382683 0.382683 0.382683 0.382683 0.382683 0.382683 0.382683 0.382683 0.382683 0.382683 0.382683 0.382683 0.382683 0.382683 0.382683 0.382683 0.382683 0.382683 0.382683 0.382683 0.258819 0.258819 0.258819 0.258819 0.258819 0.258819 0.258819 0.258819 0.258819 0.258819 0.258819 0.258819 0.258819 0.258819 0.258819 0.258819 0.258819 0.258819 0.258819 0.258819 0.258819 0.258819 0.258819 0.258819 0.258819 0.258819 0.258819 0.258819 0.258819 0.258819 0.258819 0.258819 0.258819 0.258819 0.258819 0.258819 0.258819 0.258819 0.258819 0.258819 0.258819 0.258819 0.258819 0.258819 0.258819 0.258819 0.258819 0.258819 0.130526 0.130526 0.130526 0.130526 0.130526 0.130526 0.130526 0.130526 0.130526 0.130526 0.130526 0.130526 0.130526 0.130526 0.130526 0.130526 0.130526 0.130526 0.130526 0.130526 0.130526 0.130526 0.130526 0.130526 0.130526 0.130526 0.130526 0.130526 0.130526 0.130526 0.130526 0.130526 0.130526 0.130526 0.130526 0.130526 0.130526 0.130526 0.130526 0.130526 0.130526 0.130526 0.130526 0.130526 0.130526 0.130526 0.130526 0.130526 0.000000 0.000000 0.000000 0.000000 0.000000 0.000000 0.000000 0.000000 0.000000 0.000000 0.000000 0.000000 0.000000 0.000000 0.000000 0.000000 0.000000 0.000000 0.000000 0.000000 0.000000 0.000000 0.000000 0.000000 0.000000 0.000000 0.000000 0.000000 0.000000 0.000000 0.000000 0.000000 0.000000 0.000000 0.000000 0.000000 0.000000 0.000000 0.000000 0.000000 0.000000 0.000000 0.000000 0.000000 0.000000 0.000000 0.000000 0.000000
        </DataArray>
      </PointData>
      <Points>
        <DataArray type="Float32" NumberOfComponents="3" format="ascii">