<?xml version="1.0"?>
<VTKFile type="PolyData" version="0.1" byte_order="LittleEndian">
  <PolyData>
    <Piece NumberOfPoints="2048" NumberOfPolys="4096">
      <PointData Scalars="Pressure">
        <DataArray type="Float32" Name="Height" format="ascii">
          0.0000 0.0683 0.1339 0.1944 0.2475 0.2910 0.3234 0.3433 0.3500 0.3433 0.3234 0.2910 0.2475 0.1944 0.1339 0.0683 0.0000 -0.0683 -0.1339 -0.1944 -0.2475 -0.2910 -0.3234 -0.3433 -0.3500 -0.3433 -0.3234 -0.2910 -0.2475 -0.1944 -0.1339 -0.0683 0.0000 0.0683 0.1339 0.1944 0.2475 0.2910 0.3234 0.3433 0.3500 0.3433 0.3234 0.2910 0.2475 0.1944 0.1339 0.0683 0.0000 -0.0683 -0.1339 -0.1944 -0.2475 -0.2910 -0.3234 -0.3433 -0.3500 -0.3433 -0.3234 -0.2910 -0.2475 -0.1944 -0.1339 -0.0683 0.0000 0.0683 0.1339 0.1944 0.2475 0.2910 0.3234 0.3433 0.3500 0.3433 0.3234 0.2910 0.2475 0.1944 0.1339 0.0683 0.0000 -0.0683 -0.1339 -0.1944 -0.2475 -0.2910 -0.3234 -0.3433 -0.3500 -0.3433 -0.3234 -0.2910 -0.2475 -0.1944 -0.1339 -0.0683 0.0000 0.0683 0.1339 0.1944 0.2475 0.2910 0.3234 0.3433 0.3500 0.3433 0.3234 0.2910 0.2475 0.1944 0.1339 0.0683 0.0000 -0.0683 -0.1339 -0.1944 -0.2475 -0.2910 -0.3234 -0.3433 -0.3500 -0.3433 -0.3234 -0.2910 -0.2475 -0.1944 -0.1339 -0.0683 0.0000 0.0683 0.1339 0.1944 0.2475 0.2910 0.3234 0.3433 0.3500 0.3433 0.3234 0.2910 0.2475 0.1944 0.1339 0.0683 0.0000 -0.0683 -0.1339 -0.1944 -0.2475 -0.2910 -0.3234 -0.3433 -0.3500 -0.3433 -0.3234 -0.2910 -0.2475 -0.1944 -0.1339 -0.0683 0.0000 0.0683 0.1339 0.1944 0.2475 0.2910 0.3234 0.3433 0.3500 0.3433 0.3234 0.2910 0.2475 0.1944 0.1339 0.0683 0.0000 -0.0683 -0.1339 -0.1944 -0.2475 -0.2910 -0.3234 -0.3433 -0.3500 -0.3433 -0.3234 -0.2910 -0.2475 -0.1944 -0.1339 -0.0683 0.0000 0.0683 0.1339 0.1944 0.2475 0.2910 0.3234 0.3433 0.3500 0.3433 0.3234 0.2910 0.2475 0.1944 0.1339 0.0683 0.0000 -0.0683 -0.1339 -0.1944 -0.2475 -0.2910 -0.3234 -0.3433 -0.3500 -0.3433 -0.3234 -0.2910 -0.2475 -0.1944 -0.1339 -0.0683 0.0000 0.0683 0.1339 0.1944 0.2475 0.2910 0.3234 0.3433 0.3500 0.3433 0.3234 0.2910 0.2475 0.1944 0.1339 0.0683 0.0000 -0.0683 -0.1339 -0.1944 -0.2475 -0.2910 -0.3234 -0.3433 -0.3500 -0.3433 -0.3234 -0.2910 -0.2475 -0.1944 -0.1339 -0.0683 0.0000 0.0683 0.1339 0.1944 0.2475 0.2910 0.3234 0.3433 0.3500 0.3433 0.3234 0.2910 0.2475 0.1944 0.1339 0.0683 0.0000 -0.0683 -0.1339 -0.1944 -0.2475 -0.2910 -0.3234 -0.3433 -0.3500 -0.3433 -0.3234 -0.2910 -0.2475 -0.1944 -0.1339 -0.0683 0.0000 0.0683 0.1339 0.1944 0.2475 0.2910 0.3234 0.3433 0.3500 0.3433 0.3234 0.2910 0.2475 0.1944 0.1339 0.0683 0.0000 -0.0683 -0.1339 -0.1944 -0.2475 -0.2910 -0.3234 -0.3433 -0.3500 -0.3433 -0.3234 -0.2910 -0.2475 -0.1944 -0.1339 -0.0683 0.0000 0.0683 0.1339 0.1944 0.2475 0.2910 0.3234 0.3433 0.3500 0.3433 0.3234 0.2910 0.2475 0.1944 0.1339 0.0683 0.0000 -0.0683 -0.1339 -0.1944 -0.2475 -0.2910 -0.3234 -0.3433 -0.3500 -0.3433 -0.3234 -0.2910 -0.2475 -0.1944 -0.1339 -0.0683 0.0000 0.0683 0.1339 0.1944 0.2475 0.2910 0.3234 0.3433 0.3500 0.3433 0.3234 0.2910 0.2475 0.1944 0.1339 0.0683 0.0000 -0.0683 -0.1339 -0.1944 -0.2475 -0.2910 -0.3234 -0.3433 -0.3500 -0.3433 -0.3234 -0.2910 -0.2475 -0.1944 -0.1339 -0.0683 0.0000 0.0683 0.1339 0.1944 0.2475 0.2910 0.3234 0.3433 0.3500 0.3433 0.3234 0.2910 0.2475 0.1944 0.1339 0.0683 0.0000 -0.0683 -0.1339 -0.1944 -0.2475 -0.2910 -0.3234 -0.3433 -0.3500 -0.3433 -0.3234 -0.2910 -0.2475 -0.1944 -0.1339 -0.0683 0.0000 0.0683 0.1339 0.1944 0.2475 0.2910 0.3234 0.3433 0.3500 0.3433 0.3234 0.2910 0.2475 0.1944 0.1339 0.0683 0.0000 -0.0683 -0.1339 -0.1944 -0.2475 -0.2910 -0.3234 -0.3433 -0.3500 -0.3433 -0.3234 -0.2910 -0.2475 -0.1944 -0.1339 -0.0683 0.0000 0.0683 0.1339 0.1944 0.2475 0.2910 0.3234 0.3433 0.3500 0.3433 0.3234 0.2910 0.2475 0.1944 0.1339 0.0683 0.0000 -0.0683 -0.1339 -0.1944 -0.2475 -0.2910 -0.3234 -0.3433 -0.3500 -0.3433 -0.3234 -0.2910 -0.2475 -0.1944 -0.1339 -0.0683 0.0000 0.0683 0.1339 0.1944 0.2475 0.2910 0.3234 0.3433 0.3500 0.3433 0.3234 0.2910 0.2475 0.1944 0.1339 0.0683 0.0000 -0.0683 -0.1339 -0.1944 -0.2475 -0.2910 -0.3234 -0.3433 -0.3500 -0.3433 -0.3234 -0.2910 -0.2475 -0.1944 -0.1339 -0.0683 0.0000 0.0683 0.1339 0.1944 0.2475 0.2910 0.3234 0.3433 0.3500 0.3433 0.3234 0.2910 0.2475 0.1944 0.1339 0.0683 0.0000 -0.0683 -0.1339 -0.1944 -0.2475 -0.2910 -0.3234 -0.3433 -0.3500 -0.3433 -0.3234 -0.2910 -0.2475 -0.1944 -0.1339 -0.0683 0.0000 0.0683 0.1339 0.1944 0.2475 0.2910 0.3234 0.3433 0.3500 0.3433 0.3234 0.2910 0.2475 0.1944 0.1339 0.0683 0.0000 -0.0683 -0.1339 -0.1944 -0.2475 -0.2910 -0.3234 -0.3433 -0.3500 -0.3433 -0.3234 -0.2910 -0.2475 -0.1944 -0.1339 -0.0683 0.0000 0.0683 0.1339 0.1944 0.2475 0.2910 0.3234 0.3433 0.3500 0.3433 0.3234 0.2910 0.2475 0.1944 0.1339 0.0683 0.0000 -0.0683 -0.1339 -0.1944 -0.2475 -0.2910 -0.3234 -0.3433 -0.3500 -0.3433 -0.3234 -0.2910 -0.2475 -0.1944 -0.1339 -0.0683 0.0000 0.0683 0.1339 0.1944 0.2475 0.2910 0.3234 0.3433 0.3500 0.3433 0.3234 0.2910 0.2475 0.1944 0.1339 0.0683 0.0000 -0.0683 -0.1339 -0.1944 -0.2475 -0.2910 -0.3234 -0.3433 -0.3500 -0.3433 -0.3234 -0.2910 -0.2475 -0.1944 -0.1339 -0.0683 0.0000 0.0683 0.1339 0.1944 0.2475 0.2910 0.3234 0.3433 0.3500 0.3433 0.3234 0.2910 0.2475 0.1944 0.1339 0.0683 0.0000 -0.0683 -0.1339 -0.1944 -0.2475 -0.2910 -0.3234 -0.3433 -0.3500 -0.3433 -0.3234 -0.2910 -0.2475 -0.1944 -0.1339 -0.0683 0.0000 0.0683 0.1339 0.1944 0.2475 0.2910 0.3234 0.3433 0.3500 0.3433 0.3234 0.2910 0.2475 0.1944 0.1339 0.0683 0.0000 -0.0683 -0.1339 -0.1944 -0.2475 -0.2910 -0.3234 -0.3433 -0.3500 -0.3433 -0.3234 -0.2910 -0.2475 -0.1944 -0.1339 -0.0683 0.0000 0.0683 0.1339 0.1944 0.2475 0.2910 0.3234 0.3433 0.3500 0.3433 0.3234 0.2910 0.2475 0.1944 0.1339 0.0683 0.0000 -0.0683 -0.1339 -0.1944 -0.2475 -0.2910 -0.3234 -0.3433 -0.3500 -0.3433 -0.3234 -0.2910 -0.2475 -0.1944 -0.1339 -0.0683 0.0000 0.0683 0.1339 0.1944 0.2475 0.2910 0.3234 0.3433 0.3500 0.3433 0.3234 0.2910 0.2475 0.1944 0.1339 0.0683 0.0000 -0.0683 -0.1339 -0.1944 -0.2475 -0.2910 -0.3234 -0.3433 -0.3500 -0.3433 -0.3234 -0.2910 -0.2475 -0.1944 -0.1339 -0.0683 0.0000 0.0683 0.1339 0.1944 0.2475 0.2910 0.3234 0.3433 0.3500 0.3433 0.3234 0.2910 0.2475 0.1944 0.1339 0.0683 0.0000 -0.0683 -0.1339 -0.1944 -0.2475 -0.2910 -0.3234 -0.3433 -0.3500 -0.3433 -0.3234 -0.2910 -0.2475 -0.1944 -0.1339 -0.0683 0.0000 0.0683 0.1339 0.1944 0.2475 0.2910 0.3234 0.3433 0.3500 0.3433 0.3234 0.2910 0.2475 0.1944 0.1339 0.0683 0.0000 -0.0683 -0.1339 -0.1944 -0.2475 -0.2910 -0.3234 -0.3433 -0.3500 -0.3433 -0.3234 -0.2910 -0.2475 -0.1944 -0.1339 -0.0683 0.0000 0.0683 0.1339 0.1944 0.2475 0.2910 0.3234 0.3433 0.3500 0.3433 0.3234 0.2910 0.2475 0.1944 0.1339 0.0683 0.0000 -0.0683 -0.1339 -0.1944 -0.2475 -0.2910 -0.3234 -0.3433 -0.3500 -0.3433 -0.3234 -0.2910 -0.2475 -0.1944 -0.1339 -0.0683 0.0000 0.0683 0.1339 0.1944 0.2475 0.2910 0.3234 0.3433 0.3500 0.3433 0.3234 0.2910 0.2475 0.1944 0.1339 0.0683 0.0000 -0.0683 -0.1339 -0.1944 -0.2475 -0.2910 -0.3234 -0.3433 -0.3500 -0.3433 -0.3234 -0.2910 -0.2475 -0.1944 -0.1339 -0.0683 0.0000 0.0683 0.1339 0.1944 0.2475 0.2910 0.3234 0.3433 0.3500 0.3433 0.3234 0.2910 0.2475 0.1944 0.1339 0.0683 0.0000 -0.0683 -0.1339 -0.1944 -0.2475 -0.2910 -0.3234 -0.3433 -0.3500 -0.3433 -0.3234 -0.2910 -0.2475 -0.1944 -0.1339 -0.0683 0.0000 0.0683 0.1339 0.1944 0.2475 0.2910 0.3234 0.3433 0.3500 0.3433 0.3234 0.2910 0.2475 0.1944 0.1339 0.0683 0.0000 -0.0683 -0.1339 -0.1944 -0.2475 -0.2910 -0.3234 -0.3433 -0.3500 -0.3433 -0.3234 -0.2910 -0.2475 -0.1944 -0.1339 -0.0683 0.0000 0.0683 0.1339 0.1944 0.2475 0.2910 0.3234 0.3433 0.3500 0.3433 0.3234 0.2910 0.2475 0.1944 0.1339 0.0683 0.0000 -0.0683 -0.1339 -0.1944 -0.2475 -0.2910 -0.3234 -0.3433 -0.3500 -0.3433 -0.3234 -0.2910 -0.2475 -0.1944 -0.1339 -0.0683 0.0000 0.0683 0.1339 0.1944 0.2475 0.2910 0.3234 0.3433 0.3500 0.3433 0.3234 0.2910 0.2475 0.1944 0.1339 0.0683 0.0000 -0.0683 -0.1339 -0.1944 -0.2475 -0.2910 -0.3234 -0.3433 -0.3500 -0.3433 -0.3234 -0.2910 -0.2475 -0.1944 -0.1339 -0.0683 0.0000 0.0683 0.1339 0.1944 0.2475 0.2910 0.3234 0.3433 0.3500 0.3433 0.3234 0.2910 0.2475 0.1944 0.1339 0.0683 0.0000 -0.0683 -0.1339 -0.1944 -0.2475 -0.2910 -0.3234 -0.3433 -0.3500 -0.3433 -0.3234 -0.2910 -0.2475 -0.1944 -0.1339 -0.0683 0.0000 0.0683 0.1339 0.1944 0.2475 0.2910 0.3234 0.3433 0.3500 0.3433 0.3234 0.2910 0.2475 0.1944 0.1339 0.0683 0.0000 -0.0683 -0.1339 -0.1944 -0.2475 -0.2910 -0.3234 -0.3433 -0.3500 -0.3433 -0.3234 -0.2910 -0.2475 -0.1944 -0.1339 -0.0683 0.0000 0.0683 0.1339 0.1944 0.2475 0.2910 0.3234 0.3433 0.3500 0.3433 0.3234 0.2910 0.2475 0.1944 0.1339 0.0683 0.0000 -0.0683 -0.1339 -0.1944 -0.2475 -0.2910 -0.3234 -0.3433 -0.3500 -0.3433 -0.3234 -0.2910 -0.2475 -0.1944 -0.1339 -0.0683 0.0000 0.0683 0.1339 0.1944 0.2475 0.2910 0.3234 0.3433 0.3500 0.3433 0.3234 0.2910 0.2475 0.1944 0.1339 0.0683 0.0000 -0.0683 -0.1339 -0.1944 -0.2475 -0.2910 -0.3234 -0.3433 -0.3500 -0.3433 -0.3234 -0.2910 -0.2475 -0.1944 -0.1339 -0.0683 0.0000 0.0683 0.1339 0.1944 0.2475 0.2910 0.3234 0.3433 0.3500 0.3433 0.3234 0.2910 0.2475 0.1944 0.1339 0.0683 0.0000 -0.0683 -0.1339 -0.1944 -0.2475 -0.2910 -0.3234 -0.3433 -0.3500 -0.3433 -0.3234 -0.2910 -0.2475 -0.1944 -0.1339 -0.0683 0.0000 0.0683 0.1339 0.1944 0.2475 0.2910 0.3234 0.3433 0.3500 0.3433 0.3234 0.2910 0.2475 0.1944 0.1339 0.0683 0.0000 -0.0683 -0.1339 -0.1944 -0.2475 -0.2910 -0.3234 -0.3433 -0.3500 -0.3433 -0.3234 -0.2910 -0.2475 -0.1944 -0.1339 -0.0683 0.0000 0.0683 0.1339 0.1944 0.2475 0.2910 0.3234 0.3433 0.3500 0.3433 0.3234 0.2910 0.2475 0.1944 0.1339 0.0683 0.0000 -0.0683 -0.1339 -0.1944 -0.2475 -0.2910 -0.3234 -0.3433 -0.3500 -0.3433 -0.3234 -0.2910 -0.2475 -0.1944 -0.1339 -0.0683 0.0000 0.0683 0.1339 0.1944 0.2475 0.2910 0.3234 0.3433 0.3500 0.3433 0.3234 0.2910 0.2475 0.1944 0.1339 0.0683 0.0000 -0.0683 -0.1339 -0.1944 -0.2475 -0.2910 -0.3234 -0.3433 -0.3500 -0.3433 -0.3234 -0.2910 -0.2475 -0.1944 -0.1339 -0.0683 0.0000 0.0683 0.1339 0.1944 0.2475 0.2910 0.3234 0.3433 0.3500 0.3433 0.3234 0.2910 0.2475 0.1944 0.1339 0.0683 0.0000 -0.0683 -0.1339 -0.1944 -0.2475 -0.2910 -0.3234 -0.3433 -0.3500 -0.3433 -0.3234 -0.2910 -0.2475 -0.1944 -0.1339 -0.0683 0.0000 0.0683 0.1339 0.1944 0.2475 0.2910 0.3234 0.3433 0.3500 0.3433 0.3234 0.2910 0.2475 0.1944 0.1339 0.0683 0.0000 -0.0683 -0.1339 -0.1944 -0.2475 -0.2910 -0.3234 -0.3433 -0.3500 -0.3433 -0.3234 -0.2910 -0.2475 -0.1944 -0.1339 -0.0683 0.0000 0.0683 0.1339 0.1944 0.2475 0.2910 0.3234 0.3433 0.3500 0.3433 0.3234 0.2910 0.2475 0.1944 0.1339 0.0683 0.0000 -0.0683 -0.1339 -0.1944 -0.2475 -0.2910 -0.3234 -0.3433 -0.3500 -0.3433 -0.3234 -0.2910 -0.2475 -0.1944 -0.1339 -0.0683 0.0000 0.0683 0.1339 0.1944 0.2475 0.2910 0.3234 0.3433 0.3500 0.3433 0.3234 0.2910 0.2475 0.1944 0.1339 0.0683 0.0000 -0.0683 -0.1339 -0.1944 -0.2475 -0.2910 -0.3234 -0.3433 -0.3500 -0.3433 -0.3234 -0.2910 -0.2475 -0.1944 -0.1339 -0.0683 0.0000 0.0683 0.1339 0.1944 0.2475 0.2910 0.3234 0.3433 0.3500 0.3433 0.3234 0.2910 0.2475 0.1944 0.1339 0.0683 0.0000 -0.0683 -0.1339 -0.1944 -0.2475 -0.2910 -0.3234 -0.3433 -0.3500 -0.3433 -0.3234 -0.2910 -0.2475 -0.1944 -0.1339 -0.0683 0.0000 0.0683 0.1339 0.1944 0.2475 0.2910 0.3234 0.3433 0.3500 0.3433 0.3234 0.2910 0.2475 0.1944 0.1339 0.0683 0.0000 -0.0683 -0.1339 -0.1944 -0.2475 -0.2910 -0.3234 -0.3433 -0.3500 -0.3433 -0.3234 -0.2910 -0.2475 -0.1944 -0.1339 -0.0683 0.0000 0.0683 0.1339 0.1944 0.2475 0.2910 0.3234 0.3433 0.3500 0.3433 0.3234 0.2910 0.2475 0.1944 0.1339 0.0683 0.0000 -0.0683 -0.1339 -0.1944 -0.2475 -0.2910 -0.3234 -0.3433 -0.3500 -0.3433 -0.3234 -0.2910 -0.2475 -0.1944 -0.1339 -0.0683 0.0000 0.0683 0.1339 0.1944 0.2475 0.2910 0.3234 0.3433 0.3500 0.3433 0.3234 0.2910 0.2475 0.1944 0.1339 0.0683 0.0000 -0.0683 -0.1339 -0.1944 -0.2475 -0.2910 -0.3234 -0.3433 -0.3500 -0.3433 -0.3234 -0.2910 -0.2475 -0.1944 -0.1339 -0.0683 0.0000 0.0683 0.1339 0.1944 0.2475 0.2910 0.3234 0.3433 0.3500 0.3433 0.3234 0.2910 0.2475 0.1944 0.1339 0.0683 0.0000 -0.0683 -0.1339 -0.1944 -0.2475 -0.2910 -0.3234 -0.3433 -0.3500 -0.3433 -0.3234 -0.2910 -0.2475 -0.1944 -0.1339 -0.0683 0.0000 0.0683 0.1339 0.1944 0.2475 0.2910 0.3234 0.3433 0.3500 0.3433 0.3234 0.2910 0.2475 0.1944 0.1339 0.0683 0.0000 -0.0683 -0.1339 -0.1944 -0.2475 -0.2910 -0.3234 -0.3433 -0.3500 -0.3433 -0.3234 -0.2910 -0.2475 -0.1944 -0.1339 -0.0683 0.0000 0.0683 0.1339 0.1944 0.2475 0.2910 0.3234 0.3433 0.3500 0.3433 0.3234 0.2910 0.2475 0.1944 0.1339 0.0683 0.0000 -0.0683 -0.1339 -0.1944 -0.2475 -0.2910 -0.3234 -0.3433 -0.3500 -0.3433 -0.3234 -0.2910 -0.2475 -0.1944 -0.1339 -0.0683 0.0000 0.0683 0.1339 0.1944 0.2475 0.2910 0.3234 0.3433 0.3500 0.3433 0.3234 0.2910 0.2475 0.1944 0.1339 0.0683 0.0000 -0.0683 -0.1339 -0.1944 -0.2475 -0.2910 -0.3234 -0.3433 -0.3500 -0.3433 -0.3234 -0.2910 -0.2475 -0.1944 -0.1339 -0.0683 0.0000 0.0683 0.1339 0.1944 0.2475 0.2910 0.3234 0.3433 0.3500 0.3433 0.3234 0.2910 0.2475 0.1944 0.1339 0.0683 0.0000 -0.0683 -0.1339 -0.1944 -0.2475 -0.2910 -0.3234 -0.3433 -0.3500 -0.3433 -0.3234 -0.2910 -0.2475 -0.1944 -0.1339 -0.0683 0.0000 0.0683 0.1339 0.1944 0.2475 0.2910 0.3234 0.3433 0.3500 0.3433 0.3234 0.2910 0.2475 0.1944 0.1339 0.0683 0.0000 -0.0683 -0.1339 -0.1944 -0.2475 -0.2910 -0.3234 -0.3433 -0.3500 -0.3433 -0.3234 -0.2910 -0.2475 -0.1944 -0.1339 -0.0683 0.0000 0.0683 0.1339 0.1944 0.2475 0.2910 0.3234 0.3433 0.3500 0.3433 0.3234 0.2910 0.2475 0.1944 0.1339 0.0683 0.0000 -0.0683 -0.1339 -0.1944 -0.2475 -0.2910 -0.3234 -0.3433 -0.3500 -0.3433 -0.3234 -0.2910 -0.2475 -0.1944 -0.1339 -0.0683 0.0000 0.0683 0.1339 0.1944 0.2475 0.2910 0.3234 0.3433 0.3500 0.3433 0.3234 0.2910 0.2475 0.1944 0.1339 0.0683 0.0000 -0.0683 -0.1339 -0.1944 -0.2475 -0.2910 -0.3234 -0.3433 -0.3500 -0.3433 -0.3234 -0.2910 -0.2475 -0.1944 -0.1339 -0.0683 0.0000 0.0683 0.1339 0.1944 0.2475 0.2910 0.3234 0.3433 0.3500 0.3433 0.3234 0.2910 0.2475 0.1944 0.1339 0.0683 0.0000 -0.0683 -0.1339 -0.1944 -0.2475 -0.2910 -0.3234 -0.3433 -0.3500 -0.3433 -0.3234 -0.2910 -0.2475 -0.1944 -0.1339 -0.0683 0.0000 0.0683 0.1339 0.1944 0.2475 0.2910 0.3234 0.3433 0.3500 0.3433 0.3234 0.2910 0.2475 0.1944 0.1339 0.0683 0.0000 -0.0683 -0.1339 -0.1944 -0.2475 -0.2910 -0.3234 -0.3433 -0.3500 -0.3433 -0.3234 -0.2910 -0.2475 -0.1944 -0.1339 -0.0683 0.0000 0.0683 0.1339 0.1944 0.2475 0.2910 0.3234 0.3433 0.3500 0.3433 0.3234 0.2910 0.2475 0.1944 0.1339 0.0683 0.0000 -0.0683 -0.1339 -0.1944 -0.2475 -0.2910 -0.3234 -0.3433 -0.3500 -0.3433 -0.3234 -0.2910 -0.2475 -0.1944 -0.1339 -0.0683 0.0000 0.0683 0.1339 0.1944 0.2475 0.2910 0.3234 0.3433 0.3500 0.3433 0.3234 0.2910 0.2475 0.1944 0.1339 0.0683 0.0000 -0.0683 -0.1339 -0.1944 -0.2475 -0.2910 -0.3234 -0.3433 -0.3500 -0.3433 -0.3234 -0.2910 -0.2475 -0.1944 -0.1339 -0.0683 0.0000 0.0683 0.1339 0.1944 0.2475 0.2910 0.3234 0.3433 0.3500 0.3433 0.3234 0.2910 0.2475 0.1944 0.1339 0.0683 0.0000 -0.0683 -0.1339 -0.1944 -0.2475 -0.2910 -0.3234 -0.3433 -0.3500 -0.3433 -0.3234 -0.2910 -0.2475 -0.1944 -0.1339 -0.0683 0.0000 0.0683 0.1339 0.1944 0.2475 0.2910 0.3234 0.3433 0.3500 0.3433 0.3234 0.2910 0.2475 0.1944 0.1339 0.0683 0.0000 -0.0683 -0.1339 -0.1944 -0.2475 -0.2910 -0.3234 -0.3433 -0.3500 -0.3433 -0.3234 -0.2910 -0.2475 -0.1944 -0.1339 -0.0683 0.0000 0.0683 0.1339 0.1944 0.2475 0.2910 0.3234 0.3433 0.3500 0.3433 0.3234 0.2910 0.2475 0.1944 0.1339 0.0683 0.0000 -0.0683 -0.1339 -0.1944 -0.2475 -0.2910 -0.3234 -0.3433 -0.3500 -0.3433 -0.3234 -0.2910 -0.2475 -0.1944 -0.1339 -0.0683 0.0000 0.0683 0.1339 0.1944 0.2475 0.2910 0.3234 0.3433 0.3500 0.3433 0.3234 0.2910 0.2475 0.1944 0.1339 0.0683 0.0000 -0.0683 -0.1339 -0.1944 -0.2475 -0.2910 -0.3234 -0.3433 -0.3500 -0.3433 -0.3234 -0.2910 -0.2475 -0.1944 -0.1339 -0.0683
        </DataArray>
        <DataArray type="Float32" Name="Pressure" format="ascii">